 &FCI NORB=   5,NELEC= 5,MS2=1,
  ORBSYM=0,5,0,5,0
  ISYM=1,
 &END
 0.447073234872149    1    1    1    1
 0.3911474639976355    1    1    2    2
 -0.07287987043539791    1    1    3    1
 0.4042079040120776    1    1    3    3
 0.07865834975443604    1    1    4    2
 0.4051969433887834    1    1    4    4
 0.01266126747908308    1    1    5    1
 0.07594666502070804    1    1    5    3
 0.4777398771075618    1    1    5    5
 0.155407440056    2    1    2    1
 0.09733948569578749    2    1    3    2
 0.04401591338939083    2    1    4    1
 -0.103465496709012    2    1    4    3
 0.04671168413742859    2    1    5    2
 0.152925437332088    2    1    5    4
 0.3911474639976354    2    2    1    1
 0.4115001226238952    2    2    2    2
 0.01769689560286314    2    2    3    1
 0.3779602713851941    2    2    3    3
 0.02186067924696609    2    2    4    2
 0.4145616915240267    2    2    4    4
 0.03640578911746308    2    2    5    1
 -0.007115929949124946    2    2    5    3
 0.4174221992129301    2    2    5    5
 -0.07287987043539794    3    1    1    1
 0.01769689560286316    3    1    2    2
 0.1082907287836138    3    1    3    1
 -0.0364968777784296    3    1    3    3
 -0.07046809104493909    3    1    4    2
 0.004277080868272256    3    1    4    4
 0.02630997506398618    3    1    5    1
 -0.1010849990397645    3    1    5    3
 -0.08219405903998291    3    1    5    5
 0.09733948569578749    3    2    2    1
 0.1106530676901674    3    2    3    2
 -0.02842728657075931    3    2    4    1
 -0.1020849411370528    3    2    4    3
 -0.01781153751077054    3    2    5    2
 0.09920050293067342    3    2    5    4
 0.4042079040120776    3    3    1    1
 0.3779602713851941    3    3    2    2
 -0.0364968777784296    3    3    3    1
 0.4319377254941674    3    3    3    3
 -0.003388409151980003    3    3    4    2
 0.393100285130312    3    3    4    4
 -0.04085853495483802    3    3    5    1
 0.04243791984685561    3    3    5    3
 0.4373923729957527    3    3    5    5
 0.04401591338939085    4    1    2    1
 -0.02842728657075932    4    1    3    2
 0.07694395187760895    4    1    4    1
 0.01533355247231894    4    1    4    3
 0.0703141149583339    4    1    5    2
 0.04286682757445395    4    1    5    4
 0.07865834975443602    4    2    1    1
 0.0218606792469661    4    2    2    2
 -0.0704680910449391    4    2    3    1
 -0.003388409151979935    4    2    3    3
 0.1081835243278204    4    2    4    2
 0.02717611946834365    4    2    4    4
 0.04824669056674039    4    2    5    1
 0.06861876807666321    4    2    5    3
 0.08948351443200209    4    2    5    5
 -0.1034654967090121    4    3    2    1
 -0.1020849411370529    4    3    3    2
 0.01533355247231901    4    3    4    1
 0.1131759689951326    4    3    4    3
 0.01792579075829344    4    3    5    2
 -0.1064624820720461    4    3    5    4
 0.4051969433887834    4    4    1    1
 0.4145616915240268    4    4    2    2
 0.004277080868272386    4    4    3    1
 0.393100285130312    4    4    3    3
 0.02717611946834366    4    4    4    2
 0.4379527459428126    4    4    4    4
 0.03334101936094672    4    4    5    1
 -0.006426589704966624    4    4    5    3
 0.4423114263505256    4    4    5    5
 0.01266126747908301    5    1    1    1
 0.03640578911746308    5    1    2    2
 0.02630997506398621    5    1    3    1
 -0.040858534954838    5    1    3    3
 0.04824669056674041    5    1    4    2
 0.03334101936094667    5    1    4    4
 0.07654865058633105    5    1    5    1
 -0.02625877322413544    5    1    5    3
 0.01302935867390787    5    1    5    5
 0.04671168413742861    5    2    2    1
 -0.01781153751077061    5    2    3    2
 0.07031411495833394    5    2    4    1
 0.01792579075829345    5    2    4    3
 0.07373374372816824    5    2    5    2
 0.04842158663727087    5    2    5    4
 0.07594666502070811    5    3    1    1
 -0.007115929949125075    5    3    2    2
 -0.1010849990397647    5    3    3    1
 0.04243791984685569    5    3    3    3
 0.06861876807666328    5    3    4    2
 -0.006426589704966745    5    3    4    4
 -0.0262587732241355    5    3    5    1
 0.1084472327813935    5    3    5    3
 0.09129650146180024    5    3    5    5
 0.1529254373320881    5    4    2    1
 0.09920050293067349    5    4    3    2
 0.04286682757445403    5    4    4    1
 -0.1064624820720461    5    4    4    3
 0.048421586637271    5    4    5    2
 0.1668392751817731    5    4    5    4
 0.4777398771075619    5    5    1    1
 0.41742219921293    5    5    2    2
 -0.08219405903998298    5    5    3    1
 0.4373923729957531    5    5    3    3
 0.08948351443200232    5    5    4    2
 0.4423114263505256    5    5    4    4
 0.01302935867390789    5    5    5    1
 0.09129650146180077    5    5    5    3
 0.539719011694607    5    5    5    5
 -2.067435249434452    1    1  0  0
 -1.832302627585252    2    2  0  0
 0.1713224425169993    3    1  0  0
 -1.627255537742725    3    3  0  0
 -0.1828155267841311    4    2  0  0
 -1.318110928550347    4    4  0  0
 -0.04844512610349494    5    1  0  0
 -0.1291630327649708    5    3  0  0
 -1.057662680114604    5    5  0  0
 3.395553770070001  0  0  0  0
