&FCI NORB=  10,NELEC=16,MS2=0
 ORBSYM=1,1,1,1,1,1,1,1,1,1,
 ISYM=1,
&END
4.7560231510812319   1   1   1   1
0.0256403748143915   2   1   2   1
1.1157939943389770   2   2   1   1
0.8805538139712453   2   2   2   2
0.0256403748143915   3   1   3   1
0.0474811237523358   3   2   3   2
1.1157939943389770   3   3   1   1
0.7855915664665741   3   3   2   2
0.8805538139712453   3   3   3   3
-0.4637177171943068   4   1   1   1
-0.0128917674642699   4   1   2   2
-0.0128917674642699   4   1   3   3
0.0717103500734158   4   1   4   1
0.0355891939047409   4   2   2   1
0.1736776144607436   4   2   4   2
0.0355891939047409   4   3   3   1
0.1736776144607436   4   3   4   3
1.1159901111221067   4   4   1   1
0.8057622248355993   4   4   2   2
0.8057622248355993   4   4   3   3
-0.0205088684692190   4   4   4   1
0.7972824360378026   4   4   4   4
-0.0021604790991561   5   1   1   1
0.0000085003663404   5   1   2   2
0.0000085003663404   5   1   3   3
0.0005456312015754   5   1   4   1
0.0002812803170920   5   1   4   4
0.0261156657989866   5   1   5   1
0.0001771382162772   5   2   2   1
0.0008622543181622   5   2   4   2
0.0479714832259260   5   2   5   2
-0.0000000000000001   5   3   1   1
0.0001771382162772   5   3   3   1
0.0008622543181622   5   3   4   3
0.0479714832259260   5   3   5   3
0.0067131525265996   5   4   1   1
0.0032070819676485   5   4   2   2
0.0032070819676485   5   4   3   3
0.0000344010118586   5   4   4   1
0.0039390623475420   5   4   4   4
0.0359929285620695   5   4   5   1
0.1731650373445428   5   4   5   4
1.1254694757946602   5   5   1   1
0.7901629757135604   5   5   2   2
0.7901629757135604   5   5   3   3
-0.0131331804252837   5   5   4   1
0.8095994500949169   5   5   4   4
0.0000883154273410   5   5   5   1
0.0021458545234445   5   5   5   4
0.8904460040119180   5   5   5   5
-0.0087768347903053   6   1   1   1
0.0004782765492752   6   1   2   2
0.0004782765492752   6   1   3   3
0.0016419253381160   6   1   4   1
0.0001988112764063   6   1   4   4
0.0014748567055574   6   1   5   1
0.0017707826732217   6   1   5   4
0.0003356550864454   6   1   5   5
0.0001228867812483   6   1   6   1
-0.0000000000000002   6   2   1   1
0.0008057676411262   6   2   2   1
-0.0000000000000001   6   2   2   2
-0.0000000000000001   6   2   3   3
0.0022080050576567   6   2   4   2
-0.0000000000000001   6   2   4   4
0.0008194361292512   6   2   5   2
-0.0000000000000001   6   2   5   5
0.0002612420316378   6   2   6   2
0.0000000000000001   6   3   1   1
0.0000000000000001   6   3   2   2
0.0008057676411262   6   3   3   1
0.0000000000000001   6   3   3   3
0.0022080050576567   6   3   4   3
0.0000000000000001   6   3   4   4
0.0008194361292512   6   3   5   3
0.0000000000000001   6   3   5   5
0.0002612420316378   6   3   6   3
0.0074937667326379   6   4   1   1
0.0010804629045479   6   4   2   2
0.0010804629045479   6   4   3   3
-0.0005243495117631   6   4   4   1
-0.0003013875096890   6   4   4   4
0.0009200086908910   6   4   5   1
0.0012651915864247   6   4   5   4
-0.0025137796569093   6   4   5   5
0.0000561952727921   6   4   6   1
0.0010721239774851   6   4   6   4
0.0193774948031608   6   5   1   1
0.0054852240305311   6   5   2   2
0.0054852240305311   6   5   3   3
-0.0006987078839848   6   5   4   1
0.0046969304520906   6   5   4   4
-0.0003419914542718   6   5   5   1
-0.0064524910035761   6   5   5   4
0.0049511408635890   6   5   5   5
0.0000114176371456   6   5   6   1
0.0012796662404551   6   5   6   4
0.0022075509759925   6   5   6   5
0.3049049283611325   6   6   1   1
0.2947127734409135   6   6   2   2
0.2947127734409135   6   6   3   3
-0.0000496497553196   6   6   4   1
0.3028699292627500   6   6   4   4
0.0059015464254448   6   6   5   1
0.0592688767601717   6   6   5   4
0.3179459250095658   6   6   5   5
-0.0000648279650382   6   6   6   1
-0.0000000000000001   6   6   6   2
0.0000000000000001   6   6   6   3
0.0101224906123607   6   6   6   4
0.0049511408635891   6   6   6   5
0.8904460040119243   6   6   6   6
0.0079938223250892   7   1   1   1
-0.0003523700120677   7   1   2   2
-0.0003523700120677   7   1   3   3
-0.0014575488880603   7   1   4   1
-0.0001253399006457   7   1   4   4
-0.0011996081080353   7   1   5   1
-0.0014829544837964   7   1   5   4
-0.0002620185876747   7   1   5   5
-0.0001024420024844   7   1   6   1
-0.0000424745281250   7   1   6   4
-0.0000031987084044   7   1   6   5
0.0000419734255232   7   1   6   6
0.0000855925291158   7   1   7   1
-0.0007603134501909   7   2   2   1
-0.0025937380469146   7   2   4   2
-0.0010313037131603   7   2   5   2
-0.0001890586454274   7   2   6   2
0.0001750326640906   7   2   7   2
0.0000000000000002   7   3   1   1
0.0000000000000002   7   3   2   2
-0.0007603134501909   7   3   3   1
0.0000000000000002   7   3   3   3
-0.0025937380469146   7   3   4   3
0.0000000000000002   7   3   4   4
-0.0010313037131603   7   3   5   3
0.0000000000000002   7   3   5   5
-0.0001890586454274   7   3   6   3
0.0000000000000002   7   3   6   6
0.0001750326640906   7   3   7   3
-0.0110997908988879   7   4   1   1
-0.0049407365213295   7   4   2   2
-0.0049407365213295   7   4   3   3
0.0004606767014107   7   4   4   1
-0.0039919937529966   7   4   4   4
-0.0009574727139893   7   4   5   1
-0.0025275888104736   7   4   5   4
-0.0026220836418137   7   4   5   5
-0.0000559424779688   7   4   6   1
-0.0005891124964189   7   4   6   4
-0.0006558249660428   7   4   6   5
-0.0026220836418137   7   4   6   6
0.0000437266270756   7   4   7   1
0.0005379637022932   7   4   7   4
-0.0218387255527428   7   5   1   1
-0.0095146002546112   7   5   2   2
-0.0095146002546112   7   5   3   3
0.0005771551137912   7   5   4   1
-0.0091861677051939   7   5   4   4
-0.0000042454615452   7   5   5   1
0.0032589027932297   7   5   5   4
-0.0101224906123605   7   5   5   5
-0.0000230631784842   7   5   6   1
-0.0006672528495236   7   5   6   4
-0.0012796662404551   7   5   6   5
0.0025137796569095   7   5   6   6
0.0000150997422730   7   5   7   1
0.0005891124964189   7   5   7   4
0.0010721239774851   7   5   7   5
-0.0544854692089393   7   6   1   1
-0.0497073542406695   7   6   2   2
-0.0497073542406695   7   6   3   3
0.0000454647602917   7   6   4   1
-0.0528934548940678   7   6   4   4
-0.0019000366198411   7   6   5   1
-0.0183413005166822   7   6   5   4
-0.0592688767601705   7   6   5   5
0.0000300796798377   7   6   6   1
0.0032589027932298   7   6   6   4
0.0064524910035762   7   6   6   5
-0.0021458545234403   7   6   6   6
-0.0000044714539754   7   6   7   1
0.0025275888104737   7   6   7   4
0.0012651915864248   7   6   7   5
0.1731650373445443   7   6   7   6
0.2922435521334014   7   7   1   1
0.2842426099478442   7   7   2   2
0.2842426099478442   7   7   3   3
-0.0000308638315070   7   7   4   1
0.2908551878725169   7   7   4   4
0.0052321881833738   7   7   5   1
0.0528934548940690   7   7   5   4
0.3028699292627501   7   7   5   5
-0.0000533837224770   7   7   6   1
-0.0000000000000001   7   7   6   2
0.0000000000000001   7   7   6   3
0.0091861677051941   7   7   6   4
0.0046969304520907   7   7   6   5
0.8095994500949234   7   7   6   6
0.0000450919327097   7   7   7   1
0.0000000000000002   7   7   7   3
-0.0039919937529966   7   7   7   4
0.0003013875096891   7   7   7   5
-0.0039390623475379   7   7   7   6
0.7972824360378105   7   7   7   7
-0.0003332091087120   8   1   3   1
-0.0004188863790889   8   1   4   3
0.0000245685292297   8   1   5   3
-0.0000123853510352   8   1   6   3
0.0000104479193716   8   1   7   3
0.0000044152087589   8   1   8   1
0.0000000000000002   8   2   1   1
0.0000000000000002   8   2   2   2
-0.0003045466379136   8   2   3   2
0.0000000000000002   8   2   3   3
0.0000000000000002   8   2   4   4
0.0000000000000002   8   2   5   5
0.0000000000000002   8   2   6   6
0.0000000000000002   8   2   7   7
0.0000222513116598   8   2   8   2
-0.0054002007730067   8   3   1   1
-0.0019755988139272   8   3   2   2
-0.0025846920897544   8   3   3   3
0.0001628385461018   8   3   4   1
-0.0018265084985831   8   3   4   4
0.0002413220045775   8   3   5   1
0.0019461312921169   8   3   5   4
-0.0013763142642335   8   3   5   5
0.0000050341450313   8   3   6   1
-0.0002566799819681   8   3   6   4
-0.0004368072429485   8   3   6   5
-0.0013763142642336   8   3   6   6
-0.0000056791377047   8   3   7   1
0.0001326028655677   8   3   7   4
0.0002566799819681   8   3   7   5
-0.0019461312921169   8   3   7   6
-0.0018265084985831   8   3   7   7
0.0001563031303309   8   3   8   3
-0.0002577773789811   8   4   3   1
-0.0005423690448801   8   4   4   3
0.0007640089280638   8   4   5   3
-0.0000832610733795   8   4   6   3
0.0000736609499114   8   4   7   3
0.0000037869529546   8   4   8   1
0.0001750326640906   8   4   8   4
0.0000000000000001   8   5   1   1
0.0002339453531413   8   5   3   1
0.0019506500716109   8   5   4   3
0.0003204486678703   8   5   5   3
-0.0001102591755254   8   5   6   3
0.0000832610733795   8   5   7   3
-0.0000014560469687   8   5   8   1
0.0001890586454274   8   5   8   4
0.0002612420316378   8   5   8   5
-0.0003845994670480   8   6   3   1
-0.0038781755581378   8   6   4   3
-0.0019231276944083   8   6   5   3
0.0003204486678703   8   6   6   3
-0.0000000000000002   8   6   6   6
-0.0007640089280638   8   6   7   3
-0.0000000000000001   8   6   7   7
-0.0000197935594508   8   6   8   1
0.0010313037131603   8   6   8   4
0.0008194361292512   8   6   8   5
0.0479714832259262   8   6   8   6
0.0009849339184259   8   7   3   1
0.0101535460421293   8   7   4   3
0.0038781755581378   8   7   5   3
-0.0019506500716109   8   7   6   3
-0.0000000000000002   8   7   6   6
-0.0005423690448802   8   7   7   3
-0.0000000000000003   8   7   7   7
0.0000509580810028   8   7   8   1
-0.0025937380469146   8   7   8   4
-0.0022080050576567   8   7   8   5
-0.0008622543181618   8   7   8   6
0.1736776144607447   8   7   8   7
0.2847321878978612   8   8   1   1
0.2778011054867235   8   8   2   2
0.2788956808394339   8   8   3   3
0.0000048699049623   8   8   4   1
0.2842426099478432   8   8   4   4
0.0048652222683572   8   8   5   1
0.0497073542406705   8   8   5   4
0.2947127734409128   8   8   5   5
-0.0000532581979188   8   8   6   1
-0.0000000000000001   8   8   6   2
0.0000000000000001   8   8   6   3
0.0095146002546113   8   8   6   4
0.0054852240305312   8   8   6   5
0.7901629757135639   8   8   6   6
0.0000513458130569   8   8   7   1
0.0000000000000002   8   8   7   3
-0.0049407365213295   8   8   7   4
-0.0010804629045478   8   8   7   5
-0.0032070819676453   8   8   7   6
0.8057622248356044   8   8   7   7
0.0000000000000002   8   8   8   2
-0.0025846920897545   8   8   8   3
-0.0000000000000002   8   8   8   6
-0.0000000000000003   8   8   8   7
0.8805538139712468   8   8   8   8
-0.0003332091087120   9   1   2   1
-0.0004188863790889   9   1   4   2
0.0000245685292297   9   1   5   2
-0.0000123853510352   9   1   6   2
0.0000104479193716   9   1   7   2
0.0000044152087589   9   1   9   1
-0.0054002007730067   9   2   1   1
-0.0025846920897544   9   2   2   2
-0.0019755988139272   9   2   3   3
0.0001628385461018   9   2   4   1
-0.0018265084985830   9   2   4   4
0.0002413220045775   9   2   5   1
0.0019461312921169   9   2   5   4
-0.0013763142642335   9   2   5   5
0.0000050341450313   9   2   6   1
-0.0002566799819681   9   2   6   4
-0.0004368072429485   9   2   6   5
-0.0013763142642335   9   2   6   6
-0.0000056791377047   9   2   7   1
0.0001326028655677   9   2   7   4
0.0002566799819681   9   2   7   5
-0.0019461312921169   9   2   7   6
-0.0018265084985831   9   2   7   7
0.0001118005070113   9   2   8   3
-0.0019755988139272   9   2   8   8
0.0001563031303309   9   2   9   2
-0.0003045466379136   9   3   3   2
0.0000222513116598   9   3   8   2
0.0000222513116598   9   3   9   3
-0.0002577773789811   9   4   2   1
-0.0005423690448801   9   4   4   2
0.0007640089280638   9   4   5   2
-0.0000832610733795   9   4   6   2
0.0000736609499114   9   4   7   2
0.0000037869529546   9   4   9   1
0.0001750326640906   9   4   9   4
0.0002339453531413   9   5   2   1
0.0019506500716109   9   5   4   2
0.0003204486678703   9   5   5   2
-0.0001102591755254   9   5   6   2
0.0000832610733795   9   5   7   2
-0.0000014560469687   9   5   9   1
0.0001890586454274   9   5   9   4
0.0002612420316378   9   5   9   5
-0.0003845994670480   9   6   2   1
-0.0038781755581378   9   6   4   2
-0.0019231276944083   9   6   5   2
0.0003204486678703   9   6   6   2
-0.0007640089280638   9   6   7   2
-0.0000197935594508   9   6   9   1
0.0010313037131603   9   6   9   4
0.0008194361292512   9   6   9   5
0.0479714832259262   9   6   9   6
0.0009849339184259   9   7   2   1
0.0101535460421293   9   7   4   2
0.0038781755581378   9   7   5   2
-0.0019506500716109   9   7   6   2
-0.0005423690448802   9   7   7   2
0.0000509580810028   9   7   9   1
-0.0025937380469146   9   7   9   4
-0.0022080050576567   9   7   9   5
-0.0008622543181618   9   7   9   6
0.1736776144607447   9   7   9   7
0.0005472876763553   9   8   3   2
-0.0003045466379136   9   8   8   2
-0.0003045466379136   9   8   9   3
0.0474811237523359   9   8   9   8
0.2847321878978611   9   9   1   1
0.2788956808394338   9   9   2   2
0.2778011054867234   9   9   3   3
0.0000048699049623   9   9   4   1
0.2842426099478431   9   9   4   4
0.0048652222683572   9   9   5   1
0.0497073542406705   9   9   5   4
0.2947127734409127   9   9   5   5
-0.0000532581979188   9   9   6   1
-0.0000000000000001   9   9   6   2
0.0000000000000001   9   9   6   3
0.0095146002546113   9   9   6   4
0.0054852240305312   9   9   6   5
0.7901629757135635   9   9   6   6
0.0000513458130569   9   9   7   1
0.0000000000000002   9   9   7   3
-0.0049407365213295   9   9   7   4
-0.0010804629045478   9   9   7   5
-0.0032070819676453   9   9   7   6
0.8057622248356040   9   9   7   7
0.0000000000000002   9   9   8   2
-0.0019755988139272   9   9   8   3
-0.0000000000000001   9   9   8   6
-0.0000000000000002   9   9   8   7
0.7855915664665752   9   9   8   8
-0.0025846920897544   9   9   9   2
0.8805538139712460   9   9   9   9
-0.0000994097247556   10   1   1   1
-0.0000048533298323   10   1   2   2
-0.0000048533298323   10   1   3   3
0.0000141795568026   10   1   4   1
-0.0000054057651131   10   1   4   4
0.0000022584219601   10   1   5   1
0.0000053037557163   10   1   5   4
-0.0000034321303175   10   1   5   5
0.0000004229833602   10   1   6   1
-0.0000004397426432   10   1   6   4
-0.0000008553790982   10   1   6   5
-0.0000034321303175   10   1   6   6
-0.0000003711513311   10   1   7   1
0.0000001723279752   10   1   7   4
0.0000004397426432   10   1   7   5
-0.0000053037557163   10   1   7   6
-0.0000054057651131   10   1   7   7
0.0000002476032258   10   1   8   3
-0.0000048533298323   10   1   8   8
0.0000002476032258   10   1   9   2
-0.0000048533298323   10   1   9   9
0.0000000062150891   10   1   10   1
0.0000079097767776   10   2   2   1
0.0000509580810028   10   2   4   2
0.0000197935594508   10   2   5   2
0.0000014560469687   10   2   6   2
0.0000037869529546   10   2   7   2
-0.0000001447638813   10   2   9   1
0.0000104479193716   10   2   9   4
0.0000123853510352   10   2   9   5
-0.0000245685292297   10   2   9   6
-0.0004188863790889   10   2   9   7
0.0000044152087589   10   2   10   2
0.0000079097767776   10   3   3   1
0.0000509580810028   10   3   4   3
0.0000197935594508   10   3   5   3
0.0000014560469687   10   3   6   3
0.0000037869529546   10   3   7   3
-0.0000001447638813   10   3   8   1
0.0000104479193716   10   3   8   4
0.0000123853510352   10   3   8   5
-0.0000245685292297   10   3   8   6
-0.0004188863790889   10   3   8   7
0.0000044152087589   10   3   10   3
0.0001122641513165   10   4   1   1
0.0000513458130569   10   4   2   2
0.0000513458130569   10   4   3   3
-0.0000037629144223   10   4   4   1
0.0000450919327097   10   4   4   4
0.0000044636712985   10   4   5   1
0.0000044714539754   10   4   5   4
0.0000419734255232   10   4   5   5
0.0000011099462746   10   4   6   1
-0.0000150997422730   10   4   6   4
-0.0000031987084044   10   4   6   5
-0.0002620185876747   10   4   6   6
-0.0000007989321119   10   4   7   1
0.0000437266270756   10   4   7   4
0.0000424745281250   10   4   7   5
0.0014829544837964   10   4   7   6
-0.0001253399006457   10   4   7   7
-0.0000056791377047   10   4   8   3
-0.0003523700120677   10   4   8   8
-0.0000056791377047   10   4   9   2
-0.0003523700120677   10   4   9   9
-0.0000003711513311   10   4   10   1
0.0000855925291158   10   4   10   4
0.0001080894256524   10   5   1   1
0.0000532581979188   10   5   2   2
0.0000532581979188   10   5   3   3
-0.0000014047430028   10   5   4   1
0.0000533837224770   10   5   4   4
0.0000088716636462   10   5   5   1
0.0000300796798377   10   5   5   4
0.0000648279650382   10   5   5   5
0.0000014833095682   10   5   6   1
-0.0000230631784842   10   5   6   4
-0.0000114176371456   10   5   6   5
-0.0003356550864454   10   5   6   6
-0.0000011099462746   10   5   7   1
0.0000559424779688   10   5   7   4
0.0000561952727921   10   5   7   5
0.0017707826732217   10   5   7   6
-0.0001988112764063   10   5   7   7
-0.0000050341450313   10   5   8   3
-0.0004782765492752   10   5   8   8
-0.0000050341450313   10   5   9   2
-0.0004782765492752   10   5   9   9
-0.0000004229833602   10   5   10   1
0.0001024420024844   10   5   10   4
0.0001228867812483   10   5   10   5
-0.0052677133321068   10   6   1   1
-0.0048652222683572   10   6   2   2
-0.0048652222683572   10   6   3   3
0.0000000935106971   10   6   4   1
-0.0052321881833738   10   6   4   4
-0.0001888547291101   10   6   5   1
-0.0019000366198411   10   6   5   4
-0.0059015464254448   10   6   5   5
0.0000088716636462   10   6   6   1
-0.0000042454615452   10   6   6   4
0.0003419914542718   10   6   6   5
-0.0000883154273409   10   6   6   6
-0.0000044636712985   10   6   7   1
0.0009574727139893   10   6   7   4
0.0009200086908910   10   6   7   5
0.0359929285620698   10   6   7   6
-0.0002812803170919   10   6   7   7
-0.0002413220045775   10   6   8   3
-0.0000085003663404   10   6   8   8
-0.0002413220045775   10   6   9   2
-0.0000085003663404   10   6   9   9
-0.0000022584219601   10   6   10   1
0.0011996081080353   10   6   10   4
0.0014748567055574   10   6   10   5
0.0261156657989867   10   6   10   6
0.0000039771392226   10   7   1   1
0.0000048699049623   10   7   2   2
0.0000048699049623   10   7   3   3
0.0000002493996621   10   7   4   1
-0.0000308638315070   10   7   4   4
-0.0000000935106971   10   7   5   1
-0.0000454647602917   10   7   5   4
-0.0000496497553196   10   7   5   5
0.0000014047430028   10   7   6   1
-0.0005771551137912   10   7   6   4
-0.0006987078839847   10   7   6   5
-0.0131331804252836   10   7   6   6
-0.0000037629144223   10   7   7   1
0.0004606767014107   10   7   7   4
0.0005243495117631   10   7   7   5
-0.0000344010118586   10   7   7   6
-0.0205088684692191   10   7   7   7
0.0001628385461018   10   7   8   3
-0.0128917674642698   10   7   8   8
0.0001628385461018   10   7   9   2
-0.0128917674642698   10   7   9   9
0.0000141795568026   10   7   10   1
-0.0014575488880603   10   7   10   4
-0.0016419253381160   10   7   10   5
-0.0005456312015752   10   7   10   6
0.0717103500734161   10   7   10   7
0.0000945549068518   10   8   3   1
0.0009849339184259   10   8   4   3
0.0003845994670480   10   8   5   3
-0.0002339453531413   10   8   6   3
-0.0002577773789811   10   8   7   3
0.0000079097767776   10   8   8   1
-0.0007603134501909   10   8   8   4
-0.0008057676411262   10   8   8   5
-0.0001771382162771   10   8   8   6
0.0355891939047410   10   8   8   7
-0.0003332091087120   10   8   10   3
0.0256403748143916   10   8   10   8
0.0000945549068518   10   9   2   1
0.0009849339184259   10   9   4   2
0.0003845994670480   10   9   5   2
-0.0002339453531413   10   9   6   2
-0.0002577773789811   10   9   7   2
0.0000079097767776   10   9   9   1
-0.0007603134501909   10   9   9   4
-0.0008057676411262   10   9   9   5
-0.0001771382162771   10   9   9   6
0.0355891939047410   10   9   9   7
-0.0003332091087120   10   9   10   2
0.0256403748143916   10   9   10   9
0.2921564889277887   10   10   1   1
0.2847321878978609   10   10   2   2
0.2847321878978609   10   10   3   3
0.0000039771392226   10   10   4   1
0.2922435521334001   10   10   4   4
0.0052677133321068   10   10   5   1
0.0544854692089402   10   10   5   4
0.3049049283611315   10   10   5   5
-0.0001080894256524   10   10   6   1
-0.0000000000000002   10   10   6   2
0.0000000000000002   10   10   6   3
0.0218387255527429   10   10   6   4
0.0193774948031609   10   10   6   5
1.1254694757946628   10   10   6   6
0.0001122641513165   10   10   7   1
0.0000000000000002   10   10   7   3
-0.0110997908988879   10   10   7   4
-0.0074937667326377   10   10   7   5
-0.0067131525265950   10   10   7   6
1.1159901111221122   10   10   7   7
0.0000000000000002   10   10   8   2
-0.0054002007730067   10   10   8   3
-0.0000000000000002   10   10   8   6
-0.0000000000000003   10   10   8   7
1.1157939943389770   10   10   8   8
-0.0054002007730067   10   10   9   2
1.1157939943389763   10   10   9   9
-0.0000994097247556   10   10   10   1
0.0079938223250892   10   10   10   4
0.0087768347903053   10   10   10   5
0.0021604790991552   10   10   10   6
-0.4637177171943077   10   10   10   7
4.7560231510812319   10   10   10   10
-33.9409758633005225   1   1   0   0
-8.7289673244672752   2   2   0   0
-0.0000000000000004   3   2   0   0
-8.7289673244672752   3   3   0   0
0.5502951947939286   4   1   0   0
0.0000000000000003   4   3   0   0
-9.2766013747134561   4   4   0   0
-0.0425012054122782   5   1   0   0
0.0000000000000002   5   2   0   0
0.0000000000000008   5   3   0   0
-0.4445336631680494   5   4   0   0
-8.9056812493074968   5   5   0   0
-0.0165639353501075   6   1   0   0
0.0000000000000021   6   2   0   0
-0.0000000000000019   6   3   0   0
-0.0138968618576755   6   4   0   0
-0.0004665218679918   6   5   0   0
-8.9056812493075235   6   6   0   0
0.0113945472042302   7   1   0   0
0.0000000000000001   7   2   0   0
-0.0000000000000026   7   3   0   0
0.0275020995927977   7   4   0   0
0.0138968618576726   7   5   0   0
0.4445336631680136   7   6   0   0
-9.2766013747135005   7   7   0   0
-0.0000000000000026   8   2   0   0
0.0090656676125635   8   3   0   0
-0.0000000000000012   8   5   0   0
0.0000000000000015   8   6   0   0
0.0000000000000023   8   7   0   0
-8.7289673244672823   8   8   0   0
0.0090656676125631   9   2   0   0
0.0000000000000006   9   3   0   0
-0.0000000000000001   9   5   0   0
-0.0000000000000005   9   7   0   0
-0.0000000000000008   9   8   0   0
-8.7289673244672787   9   9   0   0
0.0004782767559952   10   1   0   0
0.0113945472042304   10   4   0   0
0.0165639353501076   10   5   0   0
0.0425012054122794   10   6   0   0
0.5502951947939254   10   7   0   0
-33.9409758633005225   10   10   0   0
18.6980154911885528   0   0   0   0
