 &FCI NORB=   6,NELEC= 6,MS2=0,
  ORBSYM=1,1,1,1,1,1,
  ISYM=1,
 &END
 0.8310515989637818    1    1    1    1
 -0.01185707811718434    1    1    2    1
 0.4565261402537332    1    1    2    2
 0.00210389638112322    1    1    3    1
 -0.01281093551553165    1    1    3    2
 0.2526013653957476    1    1    3    3
 -0.0007348212358716842    1    1    4    1
 0.002548105008256645    1    1    4    2
 -0.003687631905495363    1    1    4    3
 0.1710887759290889    1    1    4    4
 0.0002351891566959657    1    1    5    1
 -0.0006242263489475827    1    1    5    2
 0.0007706666326011614    1    1    5    3
 -0.001319753903660344    1    1    5    4
 0.1291665487432818    1    1    5    5
 -5.3941334254263e-05    1    1    6    1
 0.0001430776027473443    1    1    6    2
 -0.0001704735399558018    1    1    6    3
 0.0002206111799803842    1    1    6    4
 -0.0002574263141395736    1    1    6    5
 0.1023746342854257    1    1    6    6
 -0.0118570781171845    2    1    1    1
 0.01011039412599475    2    1    2    1
 -0.008732124650993043    2    1    2    2
 -0.001117169932658051    2    1    3    1
 -0.001669661993356925    2    1    3    2
 -0.01082758971655052    2    1    3    3
 0.0001833833444841724    2    1    4    1
 0.0003945661892678883    2    1    4    2
 0.0007556861338206425    2    1    4    3
 -0.002745471419997887    2    1    4    4
 -3.948611604862959e-05    2    1    5    1
 -6.721981202205963e-05    2    1    5    2
 -0.0001380982080389714    2    1    5    3
 0.0001634289620152637    2    1    5    4
 -0.0007983106105191113    2    1    5    5
 8.689181322169145e-06    2    1    6    1
 1.004018367210683e-05    2    1    6    2
 2.688233012908903e-05    2    1    6    3
 -2.779245751132167e-05    2    1    6    4
 2.839804466317392e-05    2    1    6    5
 -0.0002574263141395526    2    1    6    6
 0.4565261402537332    2    2    1    1
 -0.008732124650992976    2    2    2    1
 0.9031524268472026    2    2    2    2
 -0.006744389795204194    2    2    3    1
 -0.01491855006024854    2    2    3    2
 0.479898308306619    2    2    3    3
 0.001405337249094145    2    2    4    1
 0.002656636420806932    2    2    4    2
 -0.01394333541490317    2    2    4    3
 0.2611722322503518    2    2    4    4
 -0.0002338482921447064    2    2    5    1
 -0.0008614766187095975    2    2    5    2
 0.002737058150031229    2    2    5    3
 -0.003912297756495252    2    2    5    4
 0.1748872350978664    2    2    5    5
 3.615878487394667e-05    2    2    6    1
 0.0002361576152709394    2    2    6    2
 -0.0005751019634333384    2    2    6    3
 0.0006691328675032446    2    2    6    4
 -0.0007983106105191318    2    2    6    5
 0.1291665487432819    2    2    6    6
 0.002103896381123246    3    1    1    1
 -0.001117169932658084    3    1    2    1
 -0.006744389795204096    3    1    2    2
 0.0004556081528730532    3    1    3    1
 -0.001017362022073651    3    1    3    2
 0.002053220960752558    3    1    3    3
 -6.191109657607924e-05    3    1    4    1
 2.460740349023936e-05    3    1    4    2
 0.0003634139487490524    3    1    4    3
 0.002338006365803498    3    1    4    4
 1.115666571764361e-05    3    1    5    1
 4.939832943221446e-06    3    1    5    2
 -8.157326878239452e-05    3    1    5    3
 -0.0001456611064594904    3    1    5    4
 0.0006691328675033964    3    1    5    5
 -2.176917205668865e-06    3    1    6    1
 -1.527407846739982e-06    3    1    6    2
 1.269024828471079e-05    3    1    6    3
 2.383077683318926e-05    3    1    6    4
 -2.779245751133833e-05    3    1    6    5
 0.0002206111799804909    3    1    6    6
 -0.01281093551553149    3    2    1    1
 -0.001669661993356857    3    2    2    1
 -0.01491855006024868    3    2    2    2
 -0.00101736202207363    3    2    3    1
 0.01131044978276488    3    2    3    2
 -0.01470853824356903    3    2    3    3
 7.737439895588171e-05    3    2    4    1
 -0.001176146806432471    3    2    4    2
 -0.001606165054078138    3    2    4    3
 -0.01383078544442204    3    2    4    4
 -1.081055851560199e-05    3    2    5    1
 0.0001887340625066613    3    2    5    2
 0.0003891966617683026    3    2    5    3
 0.0008882995333617727    3    2    5    4
 -0.003912297756494969    3    2    5    5
 2.02034279487756e-06    3    2    6    1
 -3.643064702471327e-05    3    2    6    2
 -5.884554221884632e-05    3    2    6    3
 -0.0001456611064594742    3    2    6    4
 0.0001634289620152673    3    2    6    5
 -0.001319753903660239    3    2    6    6
 0.2526013653957473    3    3    1    1
 -0.01082758971655065    3    3    2    1
 0.4798983083066188    3    3    2    2
 0.002053220960752537    3    3    3    1
 -0.01470853824356895    3    3    3    2
 0.9078298616629989    3    3    3    3
 0.001350484577394992    3    3    4    1
 -0.006711921370964284    3    3    4    2
 -0.01504681128726661    3    3    4    3
 0.4812485918033739    3    3    4    4
 -0.000317272297223521    3    3    5    1
 0.001420700337994458    3    3    5    2
 0.002625564276119464    3    3    5    3
 -0.01383078544442251    3    3    5    4
 0.2611722322503516    3    3    5    5
 5.34633437707639e-05    3    3    6    1
 -0.0002187940284949216    3    3    6    2
 -0.0007136089538828903    3    3    6    3
 0.002338006365803289    3    3    6    4
 -0.002745471419997959    3    3    6    5
 0.1710887759290888    3    3    6    6
 -0.0007348212358716923    4    1    1    1
 0.0001833833444841859    4    1    2    1
 0.001405337249094104    4    1    2    2
 -6.191109657608422e-05    4    1    3    1
 7.737439895590291e-05    4    1    3    2
 0.001350484577394957    4    1    3    3
 2.076731749822413e-05    4    1    4    1
 -6.124072344028031e-05    4    1    4    2
 0.0001673121638309798    4    1    4    3
 -0.0007136089538824779    4    1    4    4
 -3.144128109914138e-06    4    1    5    1
 4.975184213451799e-06    4    1    5    2
 3.584107306172025e-06    4    1    5    3
 -5.884554221883486e-05    4    1    5    4
 -0.0005751019634331465    4    1    5    5
 5.353394039385298e-07    4    1    6    1
 -4.27792326906489e-07    4    1    6    2
 -2.413430236728448e-06    4    1    6    3
 1.269024828470921e-05    4    1    6    4
 2.688233012909576e-05    4    1    6    5
 -0.0001704735399556909    4    1    6    6
 0.00254810500825658    4    2    1    1
 0.0003945661892678621    4    2    2    1
 0.002656636420807019    4    2    2    2
 2.460740349025056e-05    4    2    3    1
 -0.001176146806432523    4    2    3    2
 -0.006711921370964197    4    2    3    3
 -6.124072344027968e-05    4    2    4    1
 0.0005236413501436599    4    2    4    2
 -0.001170364713800912    4    2    4    3
 0.002625564276119054    4    2    4    4
 7.284626277836271e-06    4    2    5    1
 -6.92170670425371e-05    4    2    5    2
 3.364444664809559e-05    4    2    5    3
 0.0003891966617682675    4    2    5    4
 0.002737058150031057    4    2    5    5
 -9.684255310905778e-07    4    2    6    1
 1.10272103786739e-05    4    2    6    2
 3.584107306177923e-06    4    2    6    3
 -8.157326878239292e-05    4    2    6    4
 -0.0001380982080389905    4    2    6    5
 0.0007706666326010576    4    2    6    6
 -0.003687631905495278    4    3    1    1
 0.0007556861338206914    4    3    2    1
 -0.01394333541490323    4    3    2    2
 0.0003634139487490102    4    3    3    1
 -0.001606165054078008    4    3    3    2
 -0.01504681128726664    4    3    3    3
 0.0001673121638309871    4    3    4    1
 -0.001170364713800925    4    3    4    2
 0.01138212606124542    4    3    4    3
 -0.0150468112872666    4    3    4    4
 -1.161229881850809e-05    4    3    5    1
 9.23591484193767e-05    4    3    5    2
 -0.001170364713800895    4    3    5    3
 -0.001606165054078187    4    3    5    4
 -0.01394333541490311    4    3    5    5
 9.333498765037087e-07    4    3    6    1
 -1.161229881849821e-05    4    3    6    2
 0.000167312163830967    4    3    6    3
 0.0003634139487491048    4    3    6    4
 0.0007556861338206055    4    3    6    5
 -0.003687631905495346    4    3    6    6
 0.1710887759290888    4    4    1    1
 -0.002745471419997981    4    4    2    1
 0.2611722322503519    4    4    2    2
 0.002338006365803574    4    4    3    1
 -0.01383078544442231    4    4    3    2
 0.481248591803374    4    4    3    3
 -0.0007136089538824794    4    4    4    1
 0.002625564276119033    4    4    4    2
 -0.01504681128726625    4    4    4    3
 0.9078298616629991    4    4    4    4
 -0.0002187940284947281    4    4    5    1
 0.001420700337994416    4    4    5    2
 -0.006711921370963978    4    4    5    3
 -0.01470853824356943    4    4    5    4
 0.479898308306619    4    4    5    5
 5.346334377076735e-05    4    4    6    1
 -0.0003172722972236577    4    4    6    2
 0.00135048457739475    4    4    6    3
 0.002053220960752136    4    4    6    4
 -0.01082758971655073    4    4    6    5
 0.2526013653957478    4    4    6    6
 0.0002351891566959708    5    1    1    1
 -3.948611604863321e-05    5    1    2    1
 -0.0002338482921446971    5    1    2    2
 1.115666571764498e-05    5    1    3    1
 -1.081055851560803e-05    5    1    3    2
 -0.0003172722972235092    5    1    3    3
 -3.144128109914327e-06    5    1    4    1
 7.28462627783742e-06    5    1    4    2
 -1.161229881851013e-05    5    1    4    3
 -0.0002187940284947255    5    1    4    4
 1.027720501686455e-06    5    1    5    1
 -3.165979824381727e-06    5    1    5    2
 1.102721037867578e-05    5    1    5    3
 -3.643064702471893e-05    5    1    5    4
 0.0002361576152712699    5    1    5    5
 -1.400702722175107e-07    5    1    6    1
 2.74478473134975e-07    5    1    6    2
 -4.277923269060551e-07    5    1    6    3
 -1.527407846741186e-06    5    1    6    4
 1.004018367209848e-05    5    1    6    5
 0.0001430776027475176    5    1    6    6
 -0.0006242263489475872    5    2    1    1
 -6.721981202204544e-05    5    2    2    1
 -0.0008614766187096234    5    2    2    2
 4.939832943216014e-06    5    2    3    1
 0.0001887340625066812    5    2    3    2
 0.001420700337994421    5    2    3    3
 4.975184213453022e-06    5    2    4    1
 -6.921706704254216e-05    5    2    4    2
 9.235914841939368e-05    5    2    4    3
 0.001420700337994392    5    2    4    4
 -3.165979824381782e-06    5    2    5    1
 2.421725515726169e-05    5    2    5    2
 -6.92170670425385e-05    5    2    5    3
 0.0001887340625066729    5    2    5    4
 -0.0008614766187097242    5    2    5    5
 3.218326144261868e-07    5    2    6    1
 -3.165979824381114e-06    5    2    6    2
 4.975184213450607e-06    5    2    6    3
 4.939832943218994e-06    5    2    6    4
 -6.721981202203916e-05    5    2    6    5
 -0.0006242263489476409    5    2    6    6
 0.0007706666326011899    5    3    1    1
 -0.0001380982080390116    5    3    2    1
 0.002737058150031257    5    3    2    2
 -8.15732687823728e-05    5    3    3    1
 0.0003891966617682337    5    3    3    2
 0.002625564276119514    5    3    3    3
 3.584107306165038e-06    5    3    4    1
 3.364444664812119e-05    5    3    4    2
 -0.001170364713800985    5    3    4    3
 -0.00671192137096382    5    3    4    4
 1.102721037867637e-05    5    3    5    1
 -6.921706704253945e-05    5    3    5    2
 0.0005236413501436576    5    3    5    3
 -0.001176146806432459    5    3    5    4
 0.002656636420807356    5    3    5    5
 -9.684255310904408e-07    5    3    6    1
 7.284626277834264e-06    5    3    6    2
 -6.124072344027581e-05    5    3    6    3
 2.460740349022939e-05    5    3    6    4
 0.0003945661892678575    5    3    6    5
 0.00254810500825688    5    3    6    6
 -0.001319753903660485    5    4    1    1
 0.000163428962015355    5    4    2    1
 -0.003912297756495251    5    4    2    2
 -0.0001456611064595204    5    4    3    1
 0.0008882995333618728    5    4    3    2
 -0.01383078544442256    5    4    3    3
 -5.884554221882801e-05    5    4    4    1
 0.0003891966617682286    5    4    4    2
 -0.001606165054078033    5    4    4    3
 -0.01470853824356969    5    4    4    4
 -3.643064702471883e-05    5    4    5    1
 0.000188734062506674    5    4    5    2
 -0.00117614680643247    5    4    5    3
 0.01131044978276483    5    4    5    4
 -0.01491855006024932    5    4    5    5
 2.02034279487671e-06    5    4    6    1
 -1.081055851560102e-05    5    4    6    2
 7.737439895589083e-05    5    4    6    3
 -0.001017362022073623    5    4    6    4
 -0.001669661993356839    5    4    6    5
 -0.01281093551553198    5    4    6    6
 0.1291665487432818    5    5    1    1
 -0.0007983106105191662    5    5    2    1
 0.1748872350978663    5    5    2    2
 0.0006691328675034204    5    5    3    1
 -0.003912297756495091    5    5    3    2
 0.2611722322503519    5    5    3    3
 -0.000575101963433153    5    5    4    1
 0.002737058150031128    5    5    4    2
 -0.01394333541490336    5    5    4    3
 0.4798983083066191    5    5    4    4
 0.0002361576152712688    5    5    5    1
 -0.0008614766187097292    5    5    5    2
 0.002656636420807423    5    5    5    3
 -0.01491855006024918    5    5    5    4
 0.9031524268472026    5    5    5    5
 3.615878487396588e-05    5    5    6    1
 -0.0002338482921448605    5    5    6    2
 0.001405337249093961    5    5    6    3
 -0.006744389795204474    5    5    6    4
 -0.008732124650993295    5    5    6    5
 0.4565261402537339    5    5    6    6
 -5.394133425426425e-05    6    1    1    1
 8.689181322170006e-06    6    1    2    1
 3.615878487394414e-05    6    1    2    2
 -2.176917205669241e-06    6    1    3    1
 2.020342794879516e-06    6    1    3    2
 5.346334377075995e-05    6    1    3    3
 5.353394039386548e-07    6    1    4    1
 -9.684255310912681e-07    6    1    4    2
 9.333498765053785e-07    6    1    4    3
 5.34633437707642e-05    6    1    4    4
 -1.40070272217534e-07    6    1    5    1
 3.218326144262911e-07    6    1    5    2
 -9.684255310906445e-07    6    1    5    3
 2.02034279487706e-06    6    1    5    4
 3.615878487396494e-05    6    1    5    5
 4.488798493681788e-08    6    1    6    1
 -1.400702722175327e-07    6    1    6    2
 5.353394039385597e-07    6    1    6    3
 -2.176917205669213e-06    6    1    6    4
 8.689181322172213e-06    6    1    6    5
 -5.394133425421002e-05    6    1    6    6
 0.0001430776027473472    6    2    1    1
 1.004018367210337e-05    6    2    2    1
 0.0002361576152709492    6    2    2    2
 -1.527407846738338e-06    6    2    3    1
 -3.643064702472134e-05    6    2    3    2
 -0.000218794028494908    6    2    3    3
 -4.277923269071227e-07    6    2    4    1
 1.102721037867711e-05    6    2    4    2
 -1.161229881850737e-05    6    2    4    3
 -0.0003172722972236396    6    2    4    4
 2.744784731351007e-07    6    2    5    1
 -3.165979824381719e-06    6    2    5    2
 7.284626277835788e-06    6    2    5    3
 -1.081055851560302e-05    6    2    5    4
 -0.0002338482921448573    6    2    5    5
 -1.400702722175337e-07    6    2    6    1
 1.02772050168627e-06    6    2    6    2
 -3.144128109913794e-06    6    2    6    3
 1.115666571764386e-05    6    2    6    4
 -3.948611604863139e-05    6    2    6    5
 0.0002351891566957364    6    2    6    6
 -0.0001704735399558173    6    3    1    1
 2.688233012910263e-05    6    3    2    1
 -0.0005751019634333611    6    3    2    2
 1.26902482847052e-05    6    3    3    1
 -5.884554221882515e-05    6    3    3    2
 -0.0007136089538829179    6    3    3    3
 -2.413430236726058e-06    6    3    4    1
 3.584107306167302e-06    6    3    4    2
 0.0001673121638310041    6    3    4    3
 0.001350484577394679    6    3    4    4
 -4.27792326906536e-07    6    3    5    1
 4.975184213452827e-06    6    3    5    2
 -6.124072344028316e-05    6    3    5    3
 7.737439895589747e-05    6    3    5    4
 0.001405337249093954    6    3    5    5
 5.353394039385938e-07    6    3    6    1
 -3.144128109913941e-06    6    3    6    2
 2.076731749822442e-05    6    3    6    3
 -6.191109657607956e-05    6    3    6    4
 0.0001833833444841804    6    3    6    5
 -0.0007348212358718814    6    3    6    6
 0.0002206111799804386    6    4    1    1
 -2.779245751135965e-05    6    4    2    1
 0.0006691328675032821    6    4    2    2
 2.38307768331965e-05    6    4    3    1
 -0.000145661106459495    6    4    3    2
 0.002338006365803315    6    4    3    3
 1.269024828470604e-05    6    4    4    1
 -8.157326878237501e-05    6    4    4    2
 0.0003634139487490172    6    4    4    3
 0.002053220960752261    6    4    4    4
 -1.527407846740749e-06    6    4    5    1
 4.93983294321576e-06    6    4    5    2
 2.460740349024677e-05    6    4    5    3
 -0.00101736202207363    6    4    5    4
 -0.006744389795204455    6    4    5    5
 -2.176917205669233e-06    6    4    6    1
 1.115666571764413e-05    6    4    6    2
 -6.191109657608072e-05    6    4    6    3
 0.0004556081528730353    6    4    6    4
 -0.001117169932658025    6    4    6    5
 0.00210389638112285    6    4    6    6
 -0.0002574263141396407    6    5    1    1
 2.839804466323307e-05    6    5    2    1
 -0.0007983106105192181    6    5    2    2
 -2.779245751135358e-05    6    5    3    1
 0.0001634289620153195    6    5    3    2
 -0.002745471419998004    6    5    3    3
 2.688233012909724e-05    6    5    4    1
 -0.0001380982080390051    6    5    4    2
 0.000755686133820679    6    5    4    3
 -0.01082758971655063    6    5    4    4
 1.004018367209916e-05    6    5    5    1
 -6.721981202204133e-05    6    5    5    2
 0.0003945661892678453    6    5    5    3
 -0.001669661993356885    6    5    5    4
 -0.008732124650993359    6    5    5    5
 8.689181322171864e-06    6    5    6    1
 -3.948611604863025e-05    6    5    6    2
 0.0001833833444841799    6    5    6    3
 -0.001117169932658018    6    5    6    4
 0.01011039412599467    6    5    6    5
 -0.01185707811718462    6    5    6    6
 0.1023746342854257    6    6    1    1
 -0.0002574263141396026    6    6    2    1
 0.129166548743282    6    6    2    2
 0.0002206111799805206    6    6    3    1
 -0.001319753903660342    6    6    3    2
 0.1710887759290889    6    6    3    3
 -0.0001704735399556962    6    6    4    1
 0.0007706666326010893    6    6    4    2
 -0.003687631905495443    6    6    4    3
 0.252601365395748    6    6    4    4
 0.0001430776027475186    6    6    5    1
 -0.00062422634894765    6    6    5    2
 0.002548105008256951    6    6    5    3
 -0.01281093551553208    6    6    5    4
 0.4565261402537338    6    6    5    5
 -5.39413342542098e-05    6    6    6    1
 0.0002351891566957357    6    6    6    2
 -0.0007348212358718855    6    6    6    3
 0.002103896381122852    6    6    6    4
 -0.01185707811718456    6    6    6    5
 0.8310515989637827    6    6    6    6
 -1.497927149856866    1    1  0  0
 -0.2783645328870535    2    1  0  0
 -1.81122592578728    2    2  0  0
 0.06722650637239344    3    1  0  0
 -0.2936134925011694    3    2  0  0
 -1.931343091953884    3    3  0  0
 -0.01767051229688923    4    1  0  0
 0.07300313205769321    4    2  0  0
 -0.2938235831164008    4    3  0  0
 -1.931343091953885    4    4  0  0
 0.004448676965789673    5    1  0  0
 -0.01916554712801914    5    2  0  0
 0.07300313205769236    5    3  0  0
 -0.2936134925011671    5    4  0  0
 -1.811225925787279    5    5  0  0
 -0.001033276672077867    6    1  0  0
 0.004448676965790786    6    2  0  0
 -0.01767051229688825    6    3  0  0
 0.06722650637239479    6    4  0  0
 -0.2783645328870525    6    5  0  0
 -1.497927149856868    6    6  0  0
 4.603841735004002  0  0  0  0
