 &FCI NORB=   6,NELEC= 4,MS2=0,
  ORBSYM=1,1,1,1,1,1,
  ISYM=1,
 &END
 1.656838622221711    1    1    1    1
 -0.1274663155679051    1    1    2    1
 0.4024205033739067    1    1    2    2
 -0.1356465017994096    1    1    3    1
 0.008531626839520514    1    1    3    2
 0.3961290085633922    1    1    3    3
 0.3962770976897405    1    1    4    4
 0.3962770976897406    1    1    5    5
 0.02074674801751637    1    1    6    1
 -0.002295371896319621    1    1    6    2
 0.01762412443570652    1    1    6    3
 0.3612222021630708    1    1    6    6
 -0.127466315567905    2    1    1    1
 0.01779908407467914    2    1    2    1
 0.009289413878807709    2    1    2    2
 0.01220581378463946    2    1    3    1
 -0.004315364068843124    2    1    3    2
 -0.01288836575325014    2    1    3    3
 -0.005023001607545455    2    1    4    4
 -0.005023001607545455    2    1    5    5
 -0.005677683322133253    2    1    6    1
 0.007825729822298972    2    1    6    2
 -0.005598201469447893    2    1    6    3
 0.006736839030144371    2    1    6    6
 0.4024205033739068    2    2    1    1
 0.009289413878807697    2    2    2    1
 0.5053117802912989    2    2    2    2
 -0.01934734706926337    2    2    3    1
 -0.04450400014774796    2    2    3    2
 0.2320367144880915    2    2    3    3
 0.2831067425669025    2    2    4    4
 0.2831067425669025    2    2    5    5
 -0.003746768751592094    2    2    6    1
 0.1417758688640279    2    2    6    2
 -0.05051844112714013    2    2    6    3
 0.4608121887910927    2    2    6    6
 -0.1356465017994096    3    1    1    1
 0.01220581378463947    3    1    2    1
 -0.01934734706926335    3    1    2    2
 0.02117720090818676    3    1    3    1
 0.0003216623193333558    3    1    3    2
 0.002302470961549783    3    1    3    3
 -0.004857114010268142    3    1    4    4
 -0.004857114010268142    3    1    5    5
 0.001135948586801582    3    1    6    1
 -0.003456133596959333    3    1    6    2
 0.004685149849871778    3    1    6    3
 -0.01162219419771992    3    1    6    6
 0.008531626839520553    3    2    1    1
 -0.004315364068843131    3    2    2    1
 -0.044504000147748    3    2    2    2
 0.0003216623193333531    3    2    3    1
 0.01097336075769787    3    2    3    2
 0.004042279973128193    3    2    3    3
 0.003300949466703756    3    2    4    4
 0.003300949466703756    3    2    5    5
 0.0001970002756281827    3    2    6    1
 -0.03203411590091317    3    2    6    2
 0.007141639850201016    3    2    6    3
 -0.0402700376130368    3    2    6    6
 0.3961290085633922    3    3    1    1
 -0.01288836575325016    3    3    2    1
 0.2320367144880915    3    3    2    2
 0.002302470961549779    3    3    3    1
 0.004042279973128244    3    3    3    2
 0.3397429306966065    3    3    3    3
 0.2824885406765829    3    3    4    4
 0.282488540676583    3    3    5    5
 0.007576992965764847    3    3    6    1
 -0.003453854819610269    3    3    6    2
 0.03621035042290699    3    3    6    3
 0.2426308019201757    3    3    6    6
 0.009824256144293218    4    1    4    1
 0.007747054271453462    4    1    4    2
 0.01023171927336405    4    1    4    3
 -0.00561373580453033    4    1    6    4
 0.007747054271453462    4    2    4    1
 0.02492570238479286    4    2    4    2
 0.01918661841298998    4    2    4    3
 -0.01910120210435574    4    2    6    4
 0.01023171927336405    4    3    4    1
 0.01918661841298998    4    3    4    2
 0.04146698816244437    4    3    4    3
 -0.01386752501388941    4    3    6    4
 0.3962770976897405    4    4    1    1
 -0.005023001607545442    4    4    2    1
 0.2831067425669026    4    4    2    2
 -0.004857114010268137    4    4    3    1
 0.003300949466703805    4    4    3    2
 0.282488540676583    4    4    3    3
 0.3129455111594086    4    4    4    4
 0.2792072321320268    4    4    5    5
 -0.0006485730468311227    4    4    6    1
 -0.001328741681042058    4    4    6    2
 0.0003140531883514481    4    4    6    3
 0.270466325244149    4    4    6    6
 0.009824256144293218    5    1    5    1
 0.007747054271453463    5    1    5    2
 0.01023171927336405    5    1    5    3
 -0.005613735804530329    5    1    6    5
 0.007747054271453463    5    2    5    1
 0.02492570238479287    5    2    5    2
 0.01918661841298999    5    2    5    3
 -0.01910120210435574    5    2    6    5
 0.01023171927336405    5    3    5    1
 0.01918661841298999    5    3    5    2
 0.04146698816244438    5    3    5    3
 -0.01386752501388941    5    3    6    5
 0.01686913951369081    5    4    5    4
 0.3962770976897406    5    5    1    1
 -0.005023001607545445    5    5    2    1
 0.2831067425669026    5    5    2    2
 -0.004857114010268125    5    5    3    1
 0.003300949466703812    5    5    3    2
 0.282488540676583    5    5    3    3
 0.2792072321320268    5    5    4    4
 0.3129455111594086    5    5    5    5
 -0.0006485730468311356    5    5    6    1
 -0.00132874168104206    5    5    6    2
 0.0003140531883515107    5    5    6    3
 0.2704663252441489    5    5    6    6
 0.0207467480175165    6    1    1    1
 -0.005677683322133276    6    1    2    1
 -0.003746768751592098    6    1    2    2
 0.001135948586801564    6    1    3    1
 0.0001970002756281927    6    1    3    2
 0.00757699296576488    6    1    3    3
 -0.0006485730468311434    6    1    4    4
 -0.0006485730468311434    6    1    5    5
 0.004784014544275965    6    1    6    1
 0.001664105652945458    6    1    6    2
 0.003615032478679065    6    1    6    3
 0.0001572580431123275    6    1    6    6
 -0.002295371896319629    6    2    1    1
 0.007825729822298989    6    2    2    1
 0.141775868864028    6    2    2    2
 -0.003456133596959337    6    2    3    1
 -0.03203411590091326    6    2    3    2
 -0.00345385481961028    6    2    3    3
 -0.001328741681042126    6    2    4    4
 -0.001328741681042126    6    2    5    5
 0.001664105652945446    6    2    6    1
 0.1219975058823204    6    2    6    2
 -0.03009188345885269    6    2    6    3
 0.1488423839555883    6    2    6    6
 0.01762412443570632    6    3    1    1
 -0.005598201469447859    6    3    2    1
 -0.05051844112714016    6    3    2    2
 0.004685149849871826    6    3    3    1
 0.007141639850200987    6    3    3    2
 0.03621035042290707    6    3    3    3
 0.0003140531883515826    6    3    4    4
 0.0003140531883515827    6    3    5    5
 0.003615032478679055    6    3    6    1
 -0.03009188345885262    6    3    6    2
 0.02636299620768141    6    3    6    3
 -0.04258599496936283    6    3    6    6
 -0.005613735804530329    6    4    4    1
 -0.01910120210435575    6    4    4    2
 -0.0138675250138894    6    4    4    3
 0.01872044070991088    6    4    6    4
 -0.005613735804530329    6    5    5    1
 -0.01910120210435575    6    5    5    2
 -0.0138675250138894    6    5    5    3
 0.01872044070991088    6    5    6    5
 0.3612222021630712    6    6    1    1
 0.006736839030144331    6    6    2    1
 0.4608121887910928    6    6    2    2
 -0.0116221941977199    6    6    3    1
 -0.0402700376130368    6    6    3    2
 0.2426308019201757    6    6    3    3
 0.2704663252441485    6    6    4    4
 0.2704663252441485    6    6    5    5
 0.0001572580431121294    6    6    6    1
 0.1488423839555882    6    6    6    2
 -0.04258599496936345    6    6    6    3
 0.4562396053469643    6    6    6    6
 -4.790039815479781    1    1  0  0
 0.1181769015616914    2    1  0  0
 -1.597507079382941    2    2  0  0
 0.1700258317678488    3    1  0  0
 0.0396465594477776    3    2  0  0
 -1.144534843115062    3    3  0  0
 -1.161143111389476    4    4  0  0
 -1.161143111389476    5    5  0  0
 -0.00542748088186035    6    1  0  0
 -0.1428628080576157    6    2  0  0
 0.03489046654211141    6    3  0  0
 -0.9100099762393062    6    6  0  0
 1.182430830299419  0  0  0  0
