[Molden Format]
made by pyscf v[2.4.0]
[Atoms] (AU)
H   1   1     0.00000000000000     0.00000000000000     0.00000000000000
H   2   1     4.00000000000000     0.00000000000000     0.00000000000000
H   3   1     8.00000000000000     0.00000000000000     0.00000000000000
H   4   1     0.00000000000000     4.00000000000000     0.00000000000000
H   5   1     4.00000000000000     4.00000000000000     0.00000000000000
H   6   1     8.00000000000000     4.00000000000000     0.00000000000000
H   7   1     0.00000000000000     8.00000000000000     0.00000000000000
H   8   1     4.00000000000000     8.00000000000000     0.00000000000000
H   9   1     8.00000000000000     8.00000000000000     0.00000000000000
H   10   1     0.00000000000000     0.00000000000000     4.00000000000000
H   11   1     4.00000000000000     0.00000000000000     4.00000000000000
H   12   1     8.00000000000000     0.00000000000000     4.00000000000000
H   13   1     0.00000000000000     4.00000000000000     4.00000000000000
H   14   1     4.00000000000000     4.00000000000000     4.00000000000000
H   15   1     8.00000000000000     4.00000000000000     4.00000000000000
H   16   1     0.00000000000000     8.00000000000000     4.00000000000000
H   17   1     4.00000000000000     8.00000000000000     4.00000000000000
H   18   1     8.00000000000000     8.00000000000000     4.00000000000000
[GTO]
1 0
 s    3 1.00
            3.42525091    0.15432897070298
            0.62391373    0.53532814243847
             0.1688554    0.44463454202535

2 0
 s    3 1.00
            3.42525091    0.15432897070298
            0.62391373    0.53532814243847
             0.1688554    0.44463454202535

3 0
 s    3 1.00
            3.42525091    0.15432897070298
            0.62391373    0.53532814243847
             0.1688554    0.44463454202535

4 0
 s    3 1.00
            3.42525091    0.15432897070298
            0.62391373    0.53532814243847
             0.1688554    0.44463454202535

5 0
 s    3 1.00
            3.42525091    0.15432897070298
            0.62391373    0.53532814243847
             0.1688554    0.44463454202535

6 0
 s    3 1.00
            3.42525091    0.15432897070298
            0.62391373    0.53532814243847
             0.1688554    0.44463454202535

7 0
 s    3 1.00
            3.42525091    0.15432897070298
            0.62391373    0.53532814243847
             0.1688554    0.44463454202535

8 0
 s    3 1.00
            3.42525091    0.15432897070298
            0.62391373    0.53532814243847
             0.1688554    0.44463454202535

9 0
 s    3 1.00
            3.42525091    0.15432897070298
            0.62391373    0.53532814243847
             0.1688554    0.44463454202535

10 0
 s    3 1.00
            3.42525091    0.15432897070298
            0.62391373    0.53532814243847
             0.1688554    0.44463454202535

11 0
 s    3 1.00
            3.42525091    0.15432897070298
            0.62391373    0.53532814243847
             0.1688554    0.44463454202535

12 0
 s    3 1.00
            3.42525091    0.15432897070298
            0.62391373    0.53532814243847
             0.1688554    0.44463454202535

13 0
 s    3 1.00
            3.42525091    0.15432897070298
            0.62391373    0.53532814243847
             0.1688554    0.44463454202535

14 0
 s    3 1.00
            3.42525091    0.15432897070298
            0.62391373    0.53532814243847
             0.1688554    0.44463454202535

15 0
 s    3 1.00
            3.42525091    0.15432897070298
            0.62391373    0.53532814243847
             0.1688554    0.44463454202535

16 0
 s    3 1.00
            3.42525091    0.15432897070298
            0.62391373    0.53532814243847
             0.1688554    0.44463454202535

17 0
 s    3 1.00
            3.42525091    0.15432897070298
            0.62391373    0.53532814243847
             0.1688554    0.44463454202535

18 0
 s    3 1.00
            3.42525091    0.15432897070298
            0.62391373    0.53532814243847
             0.1688554    0.44463454202535

[5d]
[7f]
[9g]

[MO]
 Sym= A
 Ene=               0
 Spin= Alpha
 Occup=    1.00000
   1        1.010791904894
   2    -0.048654037968201
   3    0.0030876871731475
   4    -0.048654037968201
   5    -0.0022580039457581
   6    0.00043503273946687
   7    0.0030876871731475
   8    0.00043503273946677
   9    -3.5784319661575e-05
  10    -0.048387077637972
  11    -0.0021969016776788
  12    0.00043336178612917
  13    -0.0021969016776786
  14    0.00023672210367441
  15    3.2603235349587e-05
  16    0.0004333617861292
  17    3.2603235349624e-05
  18    -1.034623548635e-05
 Sym= A
 Ene=               1
 Spin= Alpha
 Occup=    1.00000
   1    -0.048654037968201
   2       1.0143483695082
   3      -0.0486540379682
   4    -0.0022580071588133
   5    -0.048167641363317
   6    -0.0022580071588136
   7    0.0004350327394671
   8    0.0030442622641045
   9    0.00043503273946661
  10    -0.0021969016776789
  11    -0.047903409997834
  12    -0.0021969016776786
  13    0.00023672183491806
  14    -0.0021640071488261
  15    0.00023672183491836
  16    3.2603235349476e-05
  17    0.00042191594650541
  18    3.2603235349406e-05
 Sym= A
 Ene=               2
 Spin= Alpha
 Occup=    1.00000
   1    0.0030876871731474
   2      -0.0486540379682
   3        1.010791904894
   4    0.00043503273946701
   5    -0.0022580039457581
   6    -0.048654037968201
   7    -3.5784319660362e-05
   8    0.00043503273946717
   9    0.0030876871731473
  10    0.00043336178612879
  11    -0.0021969016776788
  12    -0.048387077637972
  13    3.260323534927e-05
  14    0.0002367221036741
  15    -0.0021969016776786
  16    -1.0346235486909e-05
  17    3.2603235349172e-05
  18    0.00043336178612868
 Sym= A
 Ene=               3
 Spin= Alpha
 Occup=    1.00000
   1    -0.048654037968201
   2    -0.0022580071588133
   3    0.00043503273946702
   4       1.0143483695082
   5    -0.048167641363318
   6    0.0030442622641041
   7    -0.048654037968201
   8    -0.0022580071588137
   9    0.00043503273946666
  10    -0.002196901677679
  11    0.00023672183491803
  12    3.2603235349399e-05
  13    -0.047903409997834
  14    -0.002164007148826
  15    0.00042191594650524
  16    -0.0021969016776787
  17    0.00023672183491827
  18    3.2603235349177e-05
 Sym= A
 Ene=               4
 Spin= Alpha
 Occup=    1.00000
   1    -0.0022580039457581
   2    -0.048167641363317
   3    -0.002258003945758
   4    -0.048167641363318
   5       1.0178524201686
   6    -0.048167641363317
   7    -0.0022580039457581
   8    -0.048167641363318
   9    -0.0022580039457585
  10    0.00023672210367373
  11    -0.0021640071488263
  12    0.00023672210367443
  13    -0.0021640071488262
  14    -0.047432358976752
  15    -0.0021640071488266
  16    0.00023672210367455
  17    -0.0021640071488266
  18    0.00023672210367363
 Sym= A
 Ene=               5
 Spin= Alpha
 Occup=    1.00000
   1    0.00043503273946684
   2    -0.0022580071588136
   3    -0.048654037968201
   4    0.0030442622641041
   5    -0.048167641363317
   6       1.0143483695082
   7    0.00043503273946735
   8    -0.0022580071588136
   9    -0.048654037968201
  10    3.2603235349365e-05
  11    0.00023672183491837
  12    -0.0021969016776785
  13    0.0004219159465049
  14    -0.0021640071488265
  15    -0.047903409997834
  16    3.2603235349385e-05
  17    0.00023672183491797
  18    -0.002196901677679
 Sym= A
 Ene=               6
 Spin= Alpha
 Occup=    1.00000
   1    0.0030876871731474
   2    0.0004350327394671
   3    -3.5784319660356e-05
   4    -0.048654037968201
   5    -0.0022580039457581
   6    0.00043503273946734
   7        1.010791904894
   8      -0.0486540379682
   9    0.0030876871731477
  10    0.00043336178612889
  11    3.2603235349444e-05
  12    -1.0346235486851e-05
  13    -0.0021969016776788
  14    0.00023672210367418
  15    3.2603235349247e-05
  16    -0.048387077637972
  17    -0.0021969016776788
  18    0.00043336178612854
 Sym= A
 Ene=               7
 Spin= Alpha
 Occup=    1.00000
   1    0.00043503273946675
   2    0.0030442622641045
   3    0.00043503273946719
   4    -0.0022580071588136
   5    -0.048167641363318
   6    -0.0022580071588136
   7      -0.0486540379682
   8       1.0143483695082
   9    -0.048654037968201
  10    3.2603235349227e-05
  11    0.00042191594650516
  12    3.2603235349407e-05
  13    0.00023672183491832
  14    -0.0021640071488265
  15    0.00023672183491797
  16    -0.0021969016776786
  17    -0.047903409997834
  18    -0.0021969016776792
 Sym= A
 Ene=               8
 Spin= Alpha
 Occup=    1.00000
   1    -3.5784319661568e-05
   2    0.00043503273946659
   3    0.0030876871731474
   4    0.00043503273946664
   5    -0.0022580039457585
   6    -0.048654037968201
   7    0.0030876871731477
   8    -0.048654037968201
   9        1.010791904894
  10    -1.0346235486176e-05
  11    3.2603235349744e-05
  12    0.00043336178612944
  13    3.2603235349716e-05
  14    0.00023672210367477
  15    -0.0021969016776785
  16    0.00043336178612928
  17    -0.0021969016776786
  18    -0.048387077637972
 Sym= A
 Ene=               9
 Spin= Alpha
 Occup=    0.00000
   1    -0.048387077637972
   2    -0.0021969016776789
   3    0.00043336178612876
   4    -0.002196901677679
   5    0.00023672210367372
   6    3.2603235349353e-05
   7    0.00043336178612889
   8    3.2603235349196e-05
   9    -1.034623548617e-05
  10        1.010791904894
  11      -0.0486540379682
  12    0.0030876871731477
  13      -0.0486540379682
  14    -0.0022580039457577
  15    0.00043503273946717
  16    0.0030876871731477
  17    0.0004350327394671
  18    -3.5784319661144e-05
 Sym= A
 Ene=              10
 Spin= Alpha
 Occup=    0.00000
   1    -0.0021969016776787
   2    -0.047903409997834
   3    -0.0021969016776788
   4    0.00023672183491799
   5    -0.0021640071488262
   6    0.00023672183491833
   7    3.2603235349433e-05
   8    0.00042191594650514
   9    3.2603235349745e-05
  10      -0.0486540379682
  11       1.0143483695082
  12    -0.048654037968201
  13    -0.0022580071588134
  14    -0.048167641363318
  15    -0.0022580071588136
  16    0.00043503273946695
  17    0.0030442622641045
  18    0.0004350327394673
 Sym= A
 Ene=              11
 Spin= Alpha
 Occup=    0.00000
   1    0.0004333617861292
   2    -0.0021969016776786
   3    -0.048387077637972
   4    3.2603235349393e-05
   5    0.00023672210367443
   6    -0.0021969016776785
   7    -1.0346235486846e-05
   8     3.26032353494e-05
   9    0.00043336178612948
  10    0.0030876871731477
  11    -0.048654037968201
  12        1.010791904894
  13     0.000435032739467
  14    -0.0022580039457586
  15    -0.048654037968201
  16    -3.5784319660856e-05
  17    0.00043503273946672
  18    0.0030876871731474
 Sym= A
 Ene=              12
 Spin= Alpha
 Occup=    0.00000
   1    -0.0021969016776787
   2    0.00023672183491809
   3    3.2603235349266e-05
   4    -0.047903409997834
   5    -0.0021640071488262
   6    0.00042191594650494
   7    -0.0021969016776788
   8    0.00023672183491829
   9    3.2603235349731e-05
  10      -0.0486540379682
  11    -0.0022580071588134
  12    0.00043503273946698
  13       1.0143483695082
  14    -0.048167641363318
  15    0.0030442622641045
  16    -0.048654037968201
  17    -0.0022580071588137
  18    0.00043503273946727
 Sym= A
 Ene=              13
 Spin= Alpha
 Occup=    0.00000
   1    0.00023672210367442
   2    -0.0021640071488261
   3    0.00023672210367412
   4    -0.002164007148826
   5    -0.047432358976752
   6    -0.0021640071488265
   7    0.00023672210367419
   8    -0.0021640071488265
   9    0.00023672210367478
  10    -0.0022580039457577
  11    -0.048167641363318
  12    -0.0022580039457585
  13    -0.048167641363318
  14       1.0178524201686
  15    -0.048167641363317
  16    -0.0022580039457585
  17    -0.048167641363318
  18    -0.0022580039457576
 Sym= A
 Ene=              14
 Spin= Alpha
 Occup=    0.00000
   1    3.2603235349591e-05
   2    0.00023672183491836
   3    -0.0021969016776787
   4    0.00042191594650528
   5    -0.0021640071488266
   6    -0.047903409997834
   7    3.2603235349244e-05
   8    0.00023672183491799
   9    -0.0021969016776785
  10    0.00043503273946717
  11    -0.0022580071588136
  12    -0.048654037968201
  13    0.0030442622641045
  14    -0.048167641363317
  15       1.0143483695082
  16    0.00043503273946679
  17    -0.0022580071588138
  18    -0.048654037968201
 Sym= A
 Ene=              15
 Spin= Alpha
 Occup=    0.00000
   1    0.0004333617861292
   2    3.2603235349476e-05
   3    -1.0346235486967e-05
   4    -0.0021969016776786
   5    0.00023672210367453
   6    3.2603235349383e-05
   7    -0.048387077637972
   8    -0.0021969016776786
   9    0.00043336178612929
  10    0.0030876871731477
  11    0.00043503273946693
  12    -3.578431966087e-05
  13    -0.048654037968201
  14    -0.0022580039457586
  15    0.00043503273946679
  16        1.010791904894
  17    -0.048654037968201
  18    0.0030876871731476
 Sym= A
 Ene=              16
 Spin= Alpha
 Occup=    0.00000
   1    3.2603235349621e-05
   2    0.00042191594650542
   3    3.260323534917e-05
   4    0.00023672183491833
   5    -0.0021640071488266
   6     0.000236721834918
   7    -0.0021969016776788
   8    -0.047903409997834
   9    -0.0021969016776786
  10    0.00043503273946712
  11    0.0030442622641044
  12    0.00043503273946673
  13    -0.0022580071588137
  14    -0.048167641363318
  15    -0.0022580071588138
  16    -0.048654037968201
  17       1.0143483695082
  18    -0.048654037968201
 Sym= A
 Ene=              17
 Spin= Alpha
 Occup=    0.00000
   1    -1.034623548639e-05
   2    3.2603235349388e-05
   3    0.00043336178612869
   4    3.2603235349193e-05
   5    0.00023672210367364
   6    -0.002196901677679
   7    0.00043336178612853
   8    -0.0021969016776792
   9    -0.048387077637972
  10    -3.57843196611e-05
  11    0.00043503273946729
  12    0.0030876871731474
  13    0.00043503273946727
  14    -0.0022580039457576
  15    -0.048654037968201
  16    0.0030876871731476
  17    -0.048654037968201
  18        1.010791904894
